REMARK  Name = 
REMARK  3 active torsions:
REMARK  status: ('A' for Active; 'I' for Inactive)
REMARK    1  A    between atoms: C_1  and  C_2
REMARK    2  A    between atoms: C_2  and  C_3
REMARK    3  A    between atoms: C_3  and  C_4
REMARK                            x       y       z     vdW  Elec       q    Type
REMARK                         _______ _______ _______ _____ _____    ______ ____
ROOT
ATOM      1  C   UNL     1      -1.407   0.669   0.523  0.00  0.00    +0.000 C 
ATOM      2  C   UNL     1      -0.756  -0.656   0.158  0.00  0.00    +0.000 C 
ENDROOT
BRANCH   2   3
ATOM      3  C   UNL     1       0.469  -0.504  -0.744  0.00  0.00    +0.000 C 
ATOM      4  C   UNL     1       1.628   0.218  -0.074  0.00  0.00    +0.000 C 
ENDBRANCH   2   3
TORSDOF 1
