REMARK  Name = 
REMARK  2 active torsions:
REMARK  status: ('A' for Active; 'I' for Inactive)
REMARK    1  A    between atoms: C_1  and  C_2
REMARK    2  A    between atoms: C_2  and  C_3
REMARK                            x       y       z     vdW  Elec       q    Type
REMARK                         _______ _______ _______ _____ _____    ______ ____
ROOT
ATOM      1  C   UNL     1      -1.267   0.154   0.083  0.00  0.00    +0.000 C 
ATOM      2  C   UNL     1       0.029  -0.544  -0.296  0.00  0.00    +0.000 C 
ATOM      3  C   UNL     1       1.245   0.256   0.140  0.00  0.00    +0.000 C 
ENDROOT
TORSDOF 0
