MODEL 1
REMARK VINA RESULT:    -2.273      0.000      0.000
REMARK INTER + INTRA:          -2.273
REMARK INTER:                  -2.273
REMARK INTRA:                   0.000
REMARK UNBOUND:                 0.000
REMARK  Name = 
REMARK  2 active torsions:
REMARK  status: ('A' for Active; 'I' for Inactive)
REMARK    1  A    between atoms: C_1  and  C_2
REMARK    2  A    between atoms: C_2  and  C_3
REMARK                            x       y       z     vdW  Elec       q    Type
REMARK                         _______ _______ _______ _____ _____    ______ ____
ROOT
ATOM      1  C   UNL     1      22.637  29.186   1.609  0.00  0.00    +0.000 C 
ATOM      2  C   UNL     1      22.627  29.800   0.219  0.00  0.00    +0.000 C 
ATOM      3  C   UNL     1      21.288  29.603  -0.471  0.00  0.00    +0.000 C 
ENDROOT
TORSDOF 0
ENDMDL
MODEL 2
REMARK VINA RESULT:    -2.261      0.078      2.054
REMARK INTER + INTRA:          -2.261
REMARK INTER:                  -2.261
REMARK INTRA:                   0.000
REMARK UNBOUND:                 0.000
REMARK  Name = 
REMARK  2 active torsions:
REMARK  status: ('A' for Active; 'I' for Inactive)
REMARK    1  A    between atoms: C_1  and  C_2
REMARK    2  A    between atoms: C_2  and  C_3
REMARK                            x       y       z     vdW  Elec       q    Type
REMARK                         _______ _______ _______ _____ _____    ______ ____
ROOT
ATOM      1  C   UNL     1      21.357  29.501  -0.502  0.00  0.00    +0.000 C 
ATOM      2  C   UNL     1      22.638  29.823   0.251  0.00  0.00    +0.000 C 
ATOM      3  C   UNL     1      22.655  29.182   1.628  0.00  0.00    +0.000 C 
ENDROOT
TORSDOF 0
ENDMDL
MODEL 3
REMARK VINA RESULT:    -1.843      6.754      7.152
REMARK INTER + INTRA:          -1.843
REMARK INTER:                  -1.843
REMARK INTRA:                   0.000
REMARK UNBOUND:                 0.000
REMARK  Name = 
REMARK  2 active torsions:
REMARK  status: ('A' for Active; 'I' for Inactive)
REMARK    1  A    between atoms: C_1  and  C_2
REMARK    2  A    between atoms: C_2  and  C_3
REMARK                            x       y       z     vdW  Elec       q    Type
REMARK                         _______ _______ _______ _____ _____    ______ ____
ROOT
ATOM      1  C   UNL     1      20.560  30.742   7.680  0.00  0.00    +0.000 C 
ATOM      2  C   UNL     1      20.804  31.760   6.578  0.00  0.00    +0.000 C 
ATOM      3  C   UNL     1      19.726  32.831   6.556  0.00  0.00    +0.000 C 
ENDROOT
TORSDOF 0
ENDMDL
MODEL 4
REMARK VINA RESULT:    -1.812      6.238      7.146
REMARK INTER + INTRA:          -1.812
REMARK INTER:                  -1.812
REMARK INTRA:                   0.000
REMARK UNBOUND:                 0.000
REMARK  Name = 
REMARK  2 active torsions:
REMARK  status: ('A' for Active; 'I' for Inactive)
REMARK    1  A    between atoms: C_1  and  C_2
REMARK    2  A    between atoms: C_2  and  C_3
REMARK                            x       y       z     vdW  Elec       q    Type
REMARK                         _______ _______ _______ _____ _____    ______ ____
ROOT
ATOM      1  C   UNL     1      19.757  31.823   5.605  0.00  0.00    +0.000 C 
ATOM      2  C   UNL     1      20.897  31.736   6.606  0.00  0.00    +0.000 C 
ATOM      3  C   UNL     1      20.420  31.232   7.958  0.00  0.00    +0.000 C 
ENDROOT
TORSDOF 0
ENDMDL
MODEL 5
REMARK VINA RESULT:    -1.722      4.331      5.429
REMARK INTER + INTRA:          -1.722
REMARK INTER:                  -1.722
REMARK INTRA:                   0.000
REMARK UNBOUND:                 0.000
REMARK  Name = 
REMARK  2 active torsions:
REMARK  status: ('A' for Active; 'I' for Inactive)
REMARK    1  A    between atoms: C_1  and  C_2
REMARK    2  A    between atoms: C_2  and  C_3
REMARK                            x       y       z     vdW  Elec       q    Type
REMARK                         _______ _______ _______ _____ _____    ______ ____
ROOT
ATOM      1  C   UNL     1      18.988  25.805  -3.470  0.00  0.00    +0.000 C 
ATOM      2  C   UNL     1      19.872  26.793  -2.725  0.00  0.00    +0.000 C 
ATOM      3  C   UNL     1      20.114  26.357  -1.290  0.00  0.00    +0.000 C 
ENDROOT
TORSDOF 0
ENDMDL
MODEL 6
REMARK VINA RESULT:    -1.668      4.143      4.821
REMARK INTER + INTRA:          -1.668
REMARK INTER:                  -1.668
REMARK INTRA:                   0.000
REMARK UNBOUND:                 0.000
REMARK  Name = 
REMARK  2 active torsions:
REMARK  status: ('A' for Active; 'I' for Inactive)
REMARK    1  A    between atoms: C_1  and  C_2
REMARK    2  A    between atoms: C_2  and  C_3
REMARK                            x       y       z     vdW  Elec       q    Type
REMARK                         _______ _______ _______ _____ _____    ______ ____
ROOT
ATOM      1  C   UNL     1      20.271  26.500  -1.312  0.00  0.00    +0.000 C 
ATOM      2  C   UNL     1      19.759  26.507  -2.743  0.00  0.00    +0.000 C 
ATOM      3  C   UNL     1      18.355  27.081  -2.833  0.00  0.00    +0.000 C 
ENDROOT
TORSDOF 0
ENDMDL
MODEL 7
REMARK VINA RESULT:    -1.508      2.716      3.758
REMARK INTER + INTRA:          -1.508
REMARK INTER:                  -1.508
REMARK INTRA:                   0.000
REMARK UNBOUND:                 0.000
REMARK  Name = 
REMARK  2 active torsions:
REMARK  status: ('A' for Active; 'I' for Inactive)
REMARK    1  A    between atoms: C_1  and  C_2
REMARK    2  A    between atoms: C_2  and  C_3
REMARK                            x       y       z     vdW  Elec       q    Type
REMARK                         _______ _______ _______ _____ _____    ______ ____
ROOT
ATOM      1  C   UNL     1      20.381  28.879  -0.966  0.00  0.00    +0.000 C 
ATOM      2  C   UNL     1      19.396  28.600  -2.090  0.00  0.00    +0.000 C 
ATOM      3  C   UNL     1      19.660  27.256  -2.747  0.00  0.00    +0.000 C 
ENDROOT
TORSDOF 0
ENDMDL
MODEL 8
REMARK VINA RESULT:    -1.496      1.639      2.188
REMARK INTER + INTRA:          -1.496
REMARK INTER:                  -1.496
REMARK INTRA:                   0.000
REMARK UNBOUND:                 0.000
REMARK  Name = 
REMARK  2 active torsions:
REMARK  status: ('A' for Active; 'I' for Inactive)
REMARK    1  A    between atoms: C_1  and  C_2
REMARK    2  A    between atoms: C_2  and  C_3
REMARK                            x       y       z     vdW  Elec       q    Type
REMARK                         _______ _______ _______ _____ _____    ______ ____
ROOT
ATOM      1  C   UNL     1      21.136  30.276   0.313  0.00  0.00    +0.000 C 
ATOM      2  C   UNL     1      20.756  29.234  -0.727  0.00  0.00    +0.000 C 
ATOM      3  C   UNL     1      19.257  29.205  -0.970  0.00  0.00    +0.000 C 
ENDROOT
TORSDOF 0
ENDMDL
MODEL 9
REMARK VINA RESULT:    -1.484     14.054     14.383
REMARK INTER + INTRA:          -1.484
REMARK INTER:                  -1.484
REMARK INTRA:                   0.000
REMARK UNBOUND:                 0.000
REMARK  Name = 
REMARK  2 active torsions:
REMARK  status: ('A' for Active; 'I' for Inactive)
REMARK    1  A    between atoms: C_1  and  C_2
REMARK    2  A    between atoms: C_2  and  C_3
REMARK                            x       y       z     vdW  Elec       q    Type
REMARK                         _______ _______ _______ _____ _____    ______ ____
ROOT
ATOM      1  C   UNL     1      31.760  33.628   9.823  0.00  0.00    +0.000 C 
ATOM      2  C   UNL     1      33.188  33.196   9.533  0.00  0.00    +0.000 C 
ATOM      3  C   UNL     1      33.594  33.521   8.106  0.00  0.00    +0.000 C 
ENDROOT
TORSDOF 0
ENDMDL
