MODEL 1
REMARK VINA RESULT:    -2.214      0.000      0.000
REMARK INTER + INTRA:          -2.343
REMARK INTER:                  -2.343
REMARK INTRA:                   0.000
REMARK UNBOUND:                 0.000
REMARK  Name = 
REMARK  3 active torsions:
REMARK  status: ('A' for Active; 'I' for Inactive)
REMARK    1  A    between atoms: C_1  and  C_2
REMARK    2  A    between atoms: C_2  and  C_3
REMARK    3  A    between atoms: C_3  and  C_4
REMARK                            x       y       z     vdW  Elec       q    Type
REMARK                         _______ _______ _______ _____ _____    ______ ____
ROOT
ATOM      1  C   UNL     1      24.944   7.811   1.757  0.00  0.00    +0.000 C 
ATOM      2  C   UNL     1      25.934   7.551   0.632  0.00  0.00    +0.000 C 
ENDROOT
BRANCH   2   3
ATOM      3  C   UNL     1      27.356   7.930   1.039  0.00  0.00    +0.000 C 
ATOM      4  C   UNL     1      28.324   7.792  -0.125  0.00  0.00    +0.000 C 
ENDBRANCH   2   3
TORSDOF 1
ENDMDL
MODEL 2
REMARK VINA RESULT:    -2.127      0.883      2.959
REMARK INTER + INTRA:          -2.251
REMARK INTER:                  -2.251
REMARK INTRA:                   0.000
REMARK UNBOUND:                 0.000
REMARK  Name = 
REMARK  3 active torsions:
REMARK  status: ('A' for Active; 'I' for Inactive)
REMARK    1  A    between atoms: C_1  and  C_2
REMARK    2  A    between atoms: C_2  and  C_3
REMARK    3  A    between atoms: C_3  and  C_4
REMARK                            x       y       z     vdW  Elec       q    Type
REMARK                         _______ _______ _______ _____ _____    ______ ____
ROOT
ATOM      1  C   UNL     1      29.281   6.615   0.271  0.00  0.00    +0.000 C 
ATOM      2  C   UNL     1      28.455   7.887   0.170  0.00  0.00    +0.000 C 
ENDROOT
BRANCH   2   3
ATOM      3  C   UNL     1      27.270   7.863   1.132  0.00  0.00    +0.000 C 
ATOM      4  C   UNL     1      25.966   7.583   0.402  0.00  0.00    +0.000 C 
ENDBRANCH   2   3
TORSDOF 1
ENDMDL
MODEL 3
REMARK VINA RESULT:    -1.955     14.602     15.877
REMARK INTER + INTRA:          -2.069
REMARK INTER:                  -2.069
REMARK INTRA:                   0.000
REMARK UNBOUND:                 0.000
REMARK  Name = 
REMARK  3 active torsions:
REMARK  status: ('A' for Active; 'I' for Inactive)
REMARK    1  A    between atoms: C_1  and  C_2
REMARK    2  A    between atoms: C_2  and  C_3
REMARK    3  A    between atoms: C_3  and  C_4
REMARK                            x       y       z     vdW  Elec       q    Type
REMARK                         _______ _______ _______ _____ _____    ______ ____
ROOT
ATOM      1  C   UNL     1      21.636  16.409  11.086  0.00  0.00    +0.000 C 
ATOM      2  C   UNL     1      22.585  17.391  11.754  0.00  0.00    +0.000 C 
ENDROOT
BRANCH   2   3
ATOM      3  C   UNL     1      21.826  18.448  12.552  0.00  0.00    +0.000 C 
ATOM      4  C   UNL     1      20.322  18.298  12.386  0.00  0.00    +0.000 C 
ENDBRANCH   2   3
TORSDOF 1
ENDMDL
MODEL 4
REMARK VINA RESULT:    -1.948     14.649     15.794
REMARK INTER + INTRA:          -2.062
REMARK INTER:                  -2.062
REMARK INTRA:                   0.000
REMARK UNBOUND:                 0.000
REMARK  Name = 
REMARK  3 active torsions:
REMARK  status: ('A' for Active; 'I' for Inactive)
REMARK    1  A    between atoms: C_1  and  C_2
REMARK    2  A    between atoms: C_2  and  C_3
REMARK    3  A    between atoms: C_3  and  C_4
REMARK                            x       y       z     vdW  Elec       q    Type
REMARK                         _______ _______ _______ _____ _____    ______ ____
ROOT
ATOM      1  C   UNL     1      20.409  18.328  12.436  0.00  0.00    +0.000 C 
ATOM      2  C   UNL     1      21.908  18.471  12.645  0.00  0.00    +0.000 C 
ENDROOT
BRANCH   2   3
ATOM      3  C   UNL     1      22.692  17.516  11.748  0.00  0.00    +0.000 C 
ATOM      4  C   UNL     1      21.783  16.472  11.119  0.00  0.00    +0.000 C 
ENDBRANCH   2   3
TORSDOF 1
ENDMDL
MODEL 5
REMARK VINA RESULT:    -1.925      1.531      2.462
REMARK INTER + INTRA:          -2.038
REMARK INTER:                  -2.038
REMARK INTRA:                   0.000
REMARK UNBOUND:                 0.000
REMARK  Name = 
REMARK  3 active torsions:
REMARK  status: ('A' for Active; 'I' for Inactive)
REMARK    1  A    between atoms: C_1  and  C_2
REMARK    2  A    between atoms: C_2  and  C_3
REMARK    3  A    between atoms: C_3  and  C_4
REMARK                            x       y       z     vdW  Elec       q    Type
REMARK                         _______ _______ _______ _____ _____    ______ ____
ROOT
ATOM      1  C   UNL     1      27.103   7.826   1.048  0.00  0.00    +0.000 C 
ATOM      2  C   UNL     1      28.492   7.971   0.448  0.00  0.00    +0.000 C 
ENDROOT
BRANCH   2   3
ATOM      3  C   UNL     1      29.153   6.611   0.232  0.00  0.00    +0.000 C 
ATOM      4  C   UNL     1      28.568   5.555   1.157  0.00  0.00    +0.000 C 
ENDBRANCH   2   3
TORSDOF 1
ENDMDL
MODEL 6
REMARK VINA RESULT:    -1.894     13.320     14.135
REMARK INTER + INTRA:          -2.005
REMARK INTER:                  -2.005
REMARK INTRA:                   0.000
REMARK UNBOUND:                 0.000
REMARK  Name = 
REMARK  3 active torsions:
REMARK  status: ('A' for Active; 'I' for Inactive)
REMARK    1  A    between atoms: C_1  and  C_2
REMARK    2  A    between atoms: C_2  and  C_3
REMARK    3  A    between atoms: C_3  and  C_4
REMARK                            x       y       z     vdW  Elec       q    Type
REMARK                         _______ _______ _______ _____ _____    ______ ____
ROOT
ATOM      1  C   UNL     1      22.924  17.452  11.974  0.00  0.00    +0.000 C 
ATOM      2  C   UNL     1      21.905  16.567  11.274  0.00  0.00    +0.000 C 
ENDROOT
BRANCH   2   3
ATOM      3  C   UNL     1      22.476  15.183  10.978  0.00  0.00    +0.000 C 
ATOM      4  C   UNL     1      23.790  14.955  11.708  0.00  0.00    +0.000 C 
ENDBRANCH   2   3
TORSDOF 1
ENDMDL
MODEL 7
REMARK VINA RESULT:    -1.868     11.433     12.363
REMARK INTER + INTRA:          -1.977
REMARK INTER:                  -1.977
REMARK INTRA:                   0.000
REMARK UNBOUND:                 0.000
REMARK  Name = 
REMARK  3 active torsions:
REMARK  status: ('A' for Active; 'I' for Inactive)
REMARK    1  A    between atoms: C_1  and  C_2
REMARK    2  A    between atoms: C_2  and  C_3
REMARK    3  A    between atoms: C_3  and  C_4
REMARK                            x       y       z     vdW  Elec       q    Type
REMARK                         _______ _______ _______ _____ _____    ______ ____
ROOT
ATOM      1  C   UNL     1      37.232   9.265   7.985  0.00  0.00    +0.000 C 
ATOM      2  C   UNL     1      36.271   8.796   9.066  0.00  0.00    +0.000 C 
ENDROOT
BRANCH   2   3
ATOM      3  C   UNL     1      35.146   7.944   8.483  0.00  0.00    +0.000 C 
ATOM      4  C   UNL     1      33.985   7.812   9.456  0.00  0.00    +0.000 C 
ENDBRANCH   2   3
TORSDOF 1
ENDMDL
MODEL 8
REMARK VINA RESULT:    -1.850     13.909     15.116
REMARK INTER + INTRA:          -1.959
REMARK INTER:                  -1.959
REMARK INTRA:                   0.000
REMARK UNBOUND:                 0.000
REMARK  Name = 
REMARK  3 active torsions:
REMARK  status: ('A' for Active; 'I' for Inactive)
REMARK    1  A    between atoms: C_1  and  C_2
REMARK    2  A    between atoms: C_2  and  C_3
REMARK    3  A    between atoms: C_3  and  C_4
REMARK                            x       y       z     vdW  Elec       q    Type
REMARK                         _______ _______ _______ _____ _____    ______ ____
ROOT
ATOM      1  C   UNL     1      23.339  15.213  11.692  0.00  0.00    +0.000 C 
ATOM      2  C   UNL     1      22.314  16.305  11.430  0.00  0.00    +0.000 C 
ENDROOT
BRANCH   2   3
ATOM      3  C   UNL     1      22.828  17.673  11.872  0.00  0.00    +0.000 C 
ATOM      4  C   UNL     1      21.749  18.468  12.590  0.00  0.00    +0.000 C 
ENDBRANCH   2   3
TORSDOF 1
ENDMDL
MODEL 9
REMARK VINA RESULT:    -1.842     11.893     12.595
REMARK INTER + INTRA:          -1.950
REMARK INTER:                  -1.950
REMARK INTRA:                   0.000
REMARK UNBOUND:                 0.000
REMARK  Name = 
REMARK  3 active torsions:
REMARK  status: ('A' for Active; 'I' for Inactive)
REMARK    1  A    between atoms: C_1  and  C_2
REMARK    2  A    between atoms: C_2  and  C_3
REMARK    3  A    between atoms: C_3  and  C_4
REMARK                            x       y       z     vdW  Elec       q    Type
REMARK                         _______ _______ _______ _____ _____    ______ ____
ROOT
ATOM      1  C   UNL     1      34.866   7.922   8.560  0.00  0.00    +0.000 C 
ATOM      2  C   UNL     1      36.367   8.093   8.729  0.00  0.00    +0.000 C 
ENDROOT
BRANCH   2   3
ATOM      3  C   UNL     1      36.858   9.389   8.089  0.00  0.00    +0.000 C 
ATOM      4  C   UNL     1      37.286  10.402   9.140  0.00  0.00    +0.000 C 
ENDBRANCH   2   3
TORSDOF 1
ENDMDL
