MODEL 1
REMARK VINA RESULT:    -2.223      0.000      0.000
REMARK INTER + INTRA:          -2.353
REMARK INTER:                  -2.353
REMARK INTRA:                   0.000
REMARK UNBOUND:                 0.000
REMARK  Name = 
REMARK  3 active torsions:
REMARK  status: ('A' for Active; 'I' for Inactive)
REMARK    1  A    between atoms: C_1  and  C_2
REMARK    2  A    between atoms: C_2  and  C_3
REMARK    3  A    between atoms: C_3  and  C_4
REMARK                            x       y       z     vdW  Elec       q    Type
REMARK                         _______ _______ _______ _____ _____    ______ ____
ROOT
ATOM      1  C   UNL     1      25.989   7.561   0.254  0.00  0.00    +0.000 C 
ATOM      2  C   UNL     1      27.187   7.889   1.131  0.00  0.00    +0.000 C 
ENDROOT
BRANCH   2   3
ATOM      3  C   UNL     1      28.518   7.866   0.375  0.00  0.00    +0.000 C 
ATOM      4  C   UNL     1      28.355   7.789  -1.135  0.00  0.00    +0.000 C 
ENDBRANCH   2   3
TORSDOF 1
ENDMDL
MODEL 2
REMARK VINA RESULT:    -2.218      0.060      2.225
REMARK INTER + INTRA:          -2.347
REMARK INTER:                  -2.347
REMARK INTRA:                   0.000
REMARK UNBOUND:                 0.000
REMARK  Name = 
REMARK  3 active torsions:
REMARK  status: ('A' for Active; 'I' for Inactive)
REMARK    1  A    between atoms: C_1  and  C_2
REMARK    2  A    between atoms: C_2  and  C_3
REMARK    3  A    between atoms: C_3  and  C_4
REMARK                            x       y       z     vdW  Elec       q    Type
REMARK                         _______ _______ _______ _____ _____    ______ ____
ROOT
ATOM      1  C   UNL     1      28.296   7.748  -1.136  0.00  0.00    +0.000 C 
ATOM      2  C   UNL     1      28.503   7.852   0.367  0.00  0.00    +0.000 C 
ENDROOT
BRANCH   2   3
ATOM      3  C   UNL     1      27.194   7.891   1.159  0.00  0.00    +0.000 C 
ATOM      4  C   UNL     1      25.962   7.627   0.306  0.00  0.00    +0.000 C 
ENDBRANCH   2   3
TORSDOF 1
ENDMDL
MODEL 3
REMARK VINA RESULT:    -1.930      0.752      1.451
REMARK INTER + INTRA:          -2.043
REMARK INTER:                  -2.043
REMARK INTRA:                   0.000
REMARK UNBOUND:                 0.000
REMARK  Name = 
REMARK  3 active torsions:
REMARK  status: ('A' for Active; 'I' for Inactive)
REMARK    1  A    between atoms: C_1  and  C_2
REMARK    2  A    between atoms: C_2  and  C_3
REMARK    3  A    between atoms: C_3  and  C_4
REMARK                            x       y       z     vdW  Elec       q    Type
REMARK                         _______ _______ _______ _____ _____    ______ ____
ROOT
ATOM      1  C   UNL     1      25.885   6.099   0.058  0.00  0.00    +0.000 C 
ATOM      2  C   UNL     1      25.982   7.556   0.482  0.00  0.00    +0.000 C 
ENDROOT
BRANCH   2   3
ATOM      3  C   UNL     1      27.292   7.895   1.197  0.00  0.00    +0.000 C 
ATOM      4  C   UNL     1      28.514   7.809   0.296  0.00  0.00    +0.000 C 
ENDBRANCH   2   3
TORSDOF 1
ENDMDL
MODEL 4
REMARK VINA RESULT:    -1.759      2.592      4.233
REMARK INTER + INTRA:          -1.862
REMARK INTER:                  -1.862
REMARK INTRA:                   0.000
REMARK UNBOUND:                 0.000
REMARK  Name = 
REMARK  3 active torsions:
REMARK  status: ('A' for Active; 'I' for Inactive)
REMARK    1  A    between atoms: C_1  and  C_2
REMARK    2  A    between atoms: C_2  and  C_3
REMARK    3  A    between atoms: C_3  and  C_4
REMARK                            x       y       z     vdW  Elec       q    Type
REMARK                         _______ _______ _______ _____ _____    ______ ____
ROOT
ATOM      1  C   UNL     1      28.710  10.374  -4.148  0.00  0.00    +0.000 C 
ATOM      2  C   UNL     1      29.209   9.131  -3.429  0.00  0.00    +0.000 C 
ENDROOT
BRANCH   2   3
ATOM      3  C   UNL     1      28.087   8.295  -2.810  0.00  0.00    +0.000 C 
ATOM      4  C   UNL     1      28.372   7.862  -1.380  0.00  0.00    +0.000 C 
ENDBRANCH   2   3
TORSDOF 1
ENDMDL
MODEL 5
REMARK VINA RESULT:    -1.747      4.474      5.180
REMARK INTER + INTRA:          -1.849
REMARK INTER:                  -1.849
REMARK INTRA:                   0.000
REMARK UNBOUND:                 0.000
REMARK  Name = 
REMARK  3 active torsions:
REMARK  status: ('A' for Active; 'I' for Inactive)
REMARK    1  A    between atoms: C_1  and  C_2
REMARK    2  A    between atoms: C_2  and  C_3
REMARK    3  A    between atoms: C_3  and  C_4
REMARK                            x       y       z     vdW  Elec       q    Type
REMARK                         _______ _______ _______ _____ _____    ______ ____
ROOT
ATOM      1  C   UNL     1      27.876   9.183  -3.866  0.00  0.00    +0.000 C 
ATOM      2  C   UNL     1      28.723  10.439  -4.000  0.00  0.00    +0.000 C 
ENDROOT
BRANCH   2   3
ATOM      3  C   UNL     1      30.103  10.181  -4.608  0.00  0.00    +0.000 C 
ATOM      4  C   UNL     1      30.654   8.799  -4.294  0.00  0.00    +0.000 C 
ENDBRANCH   2   3
TORSDOF 1
ENDMDL
MODEL 6
REMARK VINA RESULT:    -1.726     11.996     12.812
REMARK INTER + INTRA:          -1.827
REMARK INTER:                  -1.827
REMARK INTRA:                   0.000
REMARK UNBOUND:                 0.000
REMARK  Name = 
REMARK  3 active torsions:
REMARK  status: ('A' for Active; 'I' for Inactive)
REMARK    1  A    between atoms: C_1  and  C_2
REMARK    2  A    between atoms: C_2  and  C_3
REMARK    3  A    between atoms: C_3  and  C_4
REMARK                            x       y       z     vdW  Elec       q    Type
REMARK                         _______ _______ _______ _____ _____    ______ ____
ROOT
ATOM      1  C   UNL     1      29.020  12.221  13.042  0.00  0.00    +0.000 C 
ATOM      2  C   UNL     1      28.102  11.765  11.918  0.00  0.00    +0.000 C 
ENDROOT
BRANCH   2   3
ATOM      3  C   UNL     1      27.115  10.676  12.343  0.00  0.00    +0.000 C 
ATOM      4  C   UNL     1      25.798  10.722  11.582  0.00  0.00    +0.000 C 
ENDBRANCH   2   3
TORSDOF 1
ENDMDL
MODEL 7
REMARK VINA RESULT:    -1.723     11.916     12.586
REMARK INTER + INTRA:          -1.823
REMARK INTER:                  -1.823
REMARK INTRA:                   0.000
REMARK UNBOUND:                 0.000
REMARK  Name = 
REMARK  3 active torsions:
REMARK  status: ('A' for Active; 'I' for Inactive)
REMARK    1  A    between atoms: C_1  and  C_2
REMARK    2  A    between atoms: C_2  and  C_3
REMARK    3  A    between atoms: C_3  and  C_4
REMARK                            x       y       z     vdW  Elec       q    Type
REMARK                         _______ _______ _______ _____ _____    ______ ____
ROOT
ATOM      1  C   UNL     1      28.193  11.874  11.923  0.00  0.00    +0.000 C 
ATOM      2  C   UNL     1      27.277  10.733  12.336  0.00  0.00    +0.000 C 
ENDROOT
BRANCH   2   3
ATOM      3  C   UNL     1      25.974  10.678  11.535  0.00  0.00    +0.000 C 
ATOM      4  C   UNL     1      24.881  11.577  12.094  0.00  0.00    +0.000 C 
ENDBRANCH   2   3
TORSDOF 1
ENDMDL
MODEL 8
REMARK VINA RESULT:    -1.701     12.007     12.411
REMARK INTER + INTRA:          -1.801
REMARK INTER:                  -1.801
REMARK INTRA:                   0.000
REMARK UNBOUND:                 0.000
REMARK  Name = 
REMARK  3 active torsions:
REMARK  status: ('A' for Active; 'I' for Inactive)
REMARK    1  A    between atoms: C_1  and  C_2
REMARK    2  A    between atoms: C_2  and  C_3
REMARK    3  A    between atoms: C_3  and  C_4
REMARK                            x       y       z     vdW  Elec       q    Type
REMARK                         _______ _______ _______ _____ _____    ______ ____
ROOT
ATOM      1  C   UNL     1      24.877  11.815  12.083  0.00  0.00    +0.000 C 
ATOM      2  C   UNL     1      25.809  10.717  11.597  0.00  0.00    +0.000 C 
ENDROOT
BRANCH   2   3
ATOM      3  C   UNL     1      27.169  10.719  12.299  0.00  0.00    +0.000 C 
ATOM      4  C   UNL     1      28.079  11.854  11.853  0.00  0.00    +0.000 C 
ENDBRANCH   2   3
TORSDOF 1
ENDMDL
MODEL 9
REMARK VINA RESULT:    -1.517      2.068      2.598
REMARK INTER + INTRA:          -1.606
REMARK INTER:                  -1.606
REMARK INTRA:                   0.000
REMARK UNBOUND:                 0.000
REMARK  Name = 
REMARK  3 active torsions:
REMARK  status: ('A' for Active; 'I' for Inactive)
REMARK    1  A    between atoms: C_1  and  C_2
REMARK    2  A    between atoms: C_2  and  C_3
REMARK    3  A    between atoms: C_3  and  C_4
REMARK                            x       y       z     vdW  Elec       q    Type
REMARK                         _______ _______ _______ _____ _____    ______ ____
ROOT
ATOM      1  C   UNL     1      28.046   4.669   0.220  0.00  0.00    +0.000 C 
ATOM      2  C   UNL     1      27.988   5.720   1.317  0.00  0.00    +0.000 C 
ENDROOT
BRANCH   2   3
ATOM      3  C   UNL     1      27.953   7.154   0.785  0.00  0.00    +0.000 C 
ATOM      4  C   UNL     1      26.680   7.904   1.148  0.00  0.00    +0.000 C 
ENDBRANCH   2   3
TORSDOF 1
ENDMDL
