MODEL 1
REMARK VINA RESULT:    -2.275      0.000      0.000
REMARK INTER + INTRA:          -2.275
REMARK INTER:                  -2.275
REMARK INTRA:                   0.000
REMARK UNBOUND:                 0.000
REMARK  Name = 
REMARK  2 active torsions:
REMARK  status: ('A' for Active; 'I' for Inactive)
REMARK    1  A    between atoms: C_1  and  C_2
REMARK    2  A    between atoms: C_2  and  C_3
REMARK                            x       y       z     vdW  Elec       q    Type
REMARK                         _______ _______ _______ _____ _____    ______ ____
ROOT
ATOM      1  C   UNL     1      21.333  29.602  -0.468  0.00  0.00    +0.000 C 
ATOM      2  C   UNL     1      22.642  29.860   0.261  0.00  0.00    +0.000 C 
ATOM      3  C   UNL     1      22.662  29.195   1.627  0.00  0.00    +0.000 C 
ENDROOT
TORSDOF 0
ENDMDL
MODEL 2
REMARK VINA RESULT:    -2.271      0.042      2.054
REMARK INTER + INTRA:          -2.271
REMARK INTER:                  -2.271
REMARK INTRA:                   0.000
REMARK UNBOUND:                 0.000
REMARK  Name = 
REMARK  2 active torsions:
REMARK  status: ('A' for Active; 'I' for Inactive)
REMARK    1  A    between atoms: C_1  and  C_2
REMARK    2  A    between atoms: C_2  and  C_3
REMARK                            x       y       z     vdW  Elec       q    Type
REMARK                         _______ _______ _______ _____ _____    ______ ____
ROOT
ATOM      1  C   UNL     1      22.633  29.190   1.633  0.00  0.00    +0.000 C 
ATOM      2  C   UNL     1      22.637  29.807   0.244  0.00  0.00    +0.000 C 
ATOM      3  C   UNL     1      21.302  29.616  -0.457  0.00  0.00    +0.000 C 
ENDROOT
TORSDOF 0
ENDMDL
MODEL 3
REMARK VINA RESULT:    -1.729      4.379      5.130
REMARK INTER + INTRA:          -1.729
REMARK INTER:                  -1.729
REMARK INTRA:                   0.000
REMARK UNBOUND:                 0.000
REMARK  Name = 
REMARK  2 active torsions:
REMARK  status: ('A' for Active; 'I' for Inactive)
REMARK    1  A    between atoms: C_1  and  C_2
REMARK    2  A    between atoms: C_2  and  C_3
REMARK                            x       y       z     vdW  Elec       q    Type
REMARK                         _______ _______ _______ _____ _____    ______ ____
ROOT
ATOM      1  C   UNL     1      18.974  25.815  -3.515  0.00  0.00    +0.000 C 
ATOM      2  C   UNL     1      20.047  26.654  -2.841  0.00  0.00    +0.000 C 
ATOM      3  C   UNL     1      20.063  26.440  -1.336  0.00  0.00    +0.000 C 
ENDROOT
TORSDOF 0
ENDMDL
MODEL 4
REMARK VINA RESULT:    -1.720      4.189      5.312
REMARK INTER + INTRA:          -1.720
REMARK INTER:                  -1.720
REMARK INTRA:                   0.000
REMARK UNBOUND:                 0.000
REMARK  Name = 
REMARK  2 active torsions:
REMARK  status: ('A' for Active; 'I' for Inactive)
REMARK    1  A    between atoms: C_1  and  C_2
REMARK    2  A    between atoms: C_2  and  C_3
REMARK                            x       y       z     vdW  Elec       q    Type
REMARK                         _______ _______ _______ _____ _____    ______ ____
ROOT
ATOM      1  C   UNL     1      20.339  26.440  -1.298  0.00  0.00    +0.000 C 
ATOM      2  C   UNL     1      19.776  27.031  -2.580  0.00  0.00    +0.000 C 
ATOM      3  C   UNL     1      19.136  25.965  -3.455  0.00  0.00    +0.000 C 
ENDROOT
TORSDOF 0
ENDMDL
MODEL 5
REMARK VINA RESULT:    -1.719      4.147      4.457
REMARK INTER + INTRA:          -1.719
REMARK INTER:                  -1.719
REMARK INTRA:                   0.000
REMARK UNBOUND:                 0.000
REMARK  Name = 
REMARK  2 active torsions:
REMARK  status: ('A' for Active; 'I' for Inactive)
REMARK    1  A    between atoms: C_1  and  C_2
REMARK    2  A    between atoms: C_2  and  C_3
REMARK                            x       y       z     vdW  Elec       q    Type
REMARK                         _______ _______ _______ _____ _____    ______ ____
ROOT
ATOM      1  C   UNL     1      19.024  27.915  -2.652  0.00  0.00    +0.000 C 
ATOM      2  C   UNL     1      19.884  26.664  -2.572  0.00  0.00    +0.000 C 
ATOM      3  C   UNL     1      20.364  26.404  -1.154  0.00  0.00    +0.000 C 
ENDROOT
TORSDOF 0
ENDMDL
MODEL 6
REMARK VINA RESULT:    -1.527      2.591      2.864
REMARK INTER + INTRA:          -1.527
REMARK INTER:                  -1.527
REMARK INTRA:                   0.000
REMARK UNBOUND:                 0.000
REMARK  Name = 
REMARK  2 active torsions:
REMARK  status: ('A' for Active; 'I' for Inactive)
REMARK    1  A    between atoms: C_1  and  C_2
REMARK    2  A    between atoms: C_2  and  C_3
REMARK                            x       y       z     vdW  Elec       q    Type
REMARK                         _______ _______ _______ _____ _____    ______ ____
ROOT
ATOM      1  C   UNL     1      19.519  30.772   2.438  0.00  0.00    +0.000 C 
ATOM      2  C   UNL     1      19.954  30.672   0.985  0.00  0.00    +0.000 C 
ATOM      3  C   UNL     1      21.339  30.059   0.855  0.00  0.00    +0.000 C 
ENDROOT
TORSDOF 0
ENDMDL
MODEL 7
REMARK VINA RESULT:    -1.484     13.995     14.348
REMARK INTER + INTRA:          -1.484
REMARK INTER:                  -1.484
REMARK INTRA:                   0.000
REMARK UNBOUND:                 0.000
REMARK  Name = 
REMARK  2 active torsions:
REMARK  status: ('A' for Active; 'I' for Inactive)
REMARK    1  A    between atoms: C_1  and  C_2
REMARK    2  A    between atoms: C_2  and  C_3
REMARK                            x       y       z     vdW  Elec       q    Type
REMARK                         _______ _______ _______ _____ _____    ______ ____
ROOT
ATOM      1  C   UNL     1      31.699  33.627   9.857  0.00  0.00    +0.000 C 
ATOM      2  C   UNL     1      33.126  33.185   9.575  0.00  0.00    +0.000 C 
ATOM      3  C   UNL     1      33.544  33.515   8.151  0.00  0.00    +0.000 C 
ENDROOT
TORSDOF 0
ENDMDL
MODEL 8
REMARK VINA RESULT:    -1.472      2.175      2.544
REMARK INTER + INTRA:          -1.472
REMARK INTER:                  -1.472
REMARK INTRA:                   0.000
REMARK UNBOUND:                 0.000
REMARK  Name = 
REMARK  2 active torsions:
REMARK  status: ('A' for Active; 'I' for Inactive)
REMARK    1  A    between atoms: C_1  and  C_2
REMARK    2  A    between atoms: C_2  and  C_3
REMARK                            x       y       z     vdW  Elec       q    Type
REMARK                         _______ _______ _______ _____ _____    ______ ____
ROOT
ATOM      1  C   UNL     1      19.435  29.000  -1.730  0.00  0.00    +0.000 C 
ATOM      2  C   UNL     1      20.619  29.140  -0.788  0.00  0.00    +0.000 C 
ATOM      3  C   UNL     1      20.387  30.228   0.248  0.00  0.00    +0.000 C 
ENDROOT
TORSDOF 0
ENDMDL
MODEL 9
REMARK VINA RESULT:    -1.464     14.246     14.512
REMARK INTER + INTRA:          -1.464
REMARK INTER:                  -1.464
REMARK INTRA:                   0.000
REMARK UNBOUND:                 0.000
REMARK  Name = 
REMARK  2 active torsions:
REMARK  status: ('A' for Active; 'I' for Inactive)
REMARK    1  A    between atoms: C_1  and  C_2
REMARK    2  A    between atoms: C_2  and  C_3
REMARK                            x       y       z     vdW  Elec       q    Type
REMARK                         _______ _______ _______ _____ _____    ______ ____
ROOT
ATOM      1  C   UNL     1      34.813  32.756   7.362  0.00  0.00    +0.000 C 
ATOM      2  C   UNL     1      33.950  33.914   7.836  0.00  0.00    +0.000 C 
ATOM      3  C   UNL     1      32.954  33.474   8.896  0.00  0.00    +0.000 C 
ENDROOT
TORSDOF 0
ENDMDL
