REMARK  Name = 
REMARK  2 active torsions:
REMARK  status: ('A' for Active; 'I' for Inactive)
REMARK    1  A    between atoms: C_1  and  C_2
REMARK    2  A    between atoms: C_2  and  C_3
REMARK                            x       y       z     vdW  Elec       q    Type
REMARK                         _______ _______ _______ _____ _____    ______ ____
ROOT
ATOM      1  C   UNL     1      -1.241   0.226  -0.209  0.00  0.00    +0.000 C 
ATOM      2  C   UNL     1      -0.018  -0.202   0.586  0.00  0.00    +0.000 C 
ATOM      3  C   UNL     1       1.255  -0.073  -0.233  0.00  0.00    +0.000 C 
ENDROOT
TORSDOF 0
