MODEL 1
REMARK VINA RESULT:    -2.270      0.000      0.000
REMARK INTER + INTRA:          -2.270
REMARK INTER:                  -2.270
REMARK INTRA:                   0.000
REMARK UNBOUND:                 0.000
REMARK  Name = 
REMARK  2 active torsions:
REMARK  status: ('A' for Active; 'I' for Inactive)
REMARK    1  A    between atoms: C_1  and  C_2
REMARK    2  A    between atoms: C_2  and  C_3
REMARK                            x       y       z     vdW  Elec       q    Type
REMARK                         _______ _______ _______ _____ _____    ______ ____
ROOT
ATOM      1  C   UNL     1      21.218  29.604  -0.438  0.00  0.00    +0.000 C 
ATOM      2  C   UNL     1      22.562  29.824   0.238  0.00  0.00    +0.000 C 
ATOM      3  C   UNL     1      22.613  29.171   1.609  0.00  0.00    +0.000 C 
ENDROOT
TORSDOF 0
ENDMDL
MODEL 2
REMARK VINA RESULT:    -2.244      0.165      2.054
REMARK INTER + INTRA:          -2.244
REMARK INTER:                  -2.244
REMARK INTRA:                   0.000
REMARK UNBOUND:                 0.000
REMARK  Name = 
REMARK  2 active torsions:
REMARK  status: ('A' for Active; 'I' for Inactive)
REMARK    1  A    between atoms: C_1  and  C_2
REMARK    2  A    between atoms: C_2  and  C_3
REMARK                            x       y       z     vdW  Elec       q    Type
REMARK                         _______ _______ _______ _____ _____    ______ ____
ROOT
ATOM      1  C   UNL     1      22.681  29.142   1.635  0.00  0.00    +0.000 C 
ATOM      2  C   UNL     1      22.676  29.763   0.248  0.00  0.00    +0.000 C 
ATOM      3  C   UNL     1      21.274  29.815  -0.336  0.00  0.00    +0.000 C 
ENDROOT
TORSDOF 0
ENDMDL
MODEL 3
REMARK VINA RESULT:    -1.880      6.202      6.739
REMARK INTER + INTRA:          -1.880
REMARK INTER:                  -1.880
REMARK INTRA:                   0.000
REMARK UNBOUND:                 0.000
REMARK  Name = 
REMARK  2 active torsions:
REMARK  status: ('A' for Active; 'I' for Inactive)
REMARK    1  A    between atoms: C_1  and  C_2
REMARK    2  A    between atoms: C_2  and  C_3
REMARK                            x       y       z     vdW  Elec       q    Type
REMARK                         _______ _______ _______ _____ _____    ______ ____
ROOT
ATOM      1  C   UNL     1      19.759  31.818   5.608  0.00  0.00    +0.000 C 
ATOM      2  C   UNL     1      20.839  31.822   6.678  0.00  0.00    +0.000 C 
ATOM      3  C   UNL     1      20.582  30.764   7.737  0.00  0.00    +0.000 C 
ENDROOT
TORSDOF 0
ENDMDL
MODEL 4
REMARK VINA RESULT:    -1.867      6.249      7.057
REMARK INTER + INTRA:          -1.867
REMARK INTER:                  -1.867
REMARK INTRA:                   0.000
REMARK UNBOUND:                 0.000
REMARK  Name = 
REMARK  2 active torsions:
REMARK  status: ('A' for Active; 'I' for Inactive)
REMARK    1  A    between atoms: C_1  and  C_2
REMARK    2  A    between atoms: C_2  and  C_3
REMARK                            x       y       z     vdW  Elec       q    Type
REMARK                         _______ _______ _______ _____ _____    ______ ____
ROOT
ATOM      1  C   UNL     1      20.595  30.763   7.779  0.00  0.00    +0.000 C 
ATOM      2  C   UNL     1      20.866  31.800   6.702  0.00  0.00    +0.000 C 
ATOM      3  C   UNL     1      19.760  31.829   5.661  0.00  0.00    +0.000 C 
ENDROOT
TORSDOF 0
ENDMDL
MODEL 5
REMARK VINA RESULT:    -1.711      4.025      4.695
REMARK INTER + INTRA:          -1.711
REMARK INTER:                  -1.711
REMARK INTRA:                   0.000
REMARK UNBOUND:                 0.000
REMARK  Name = 
REMARK  2 active torsions:
REMARK  status: ('A' for Active; 'I' for Inactive)
REMARK    1  A    between atoms: C_1  and  C_2
REMARK    2  A    between atoms: C_2  and  C_3
REMARK                            x       y       z     vdW  Elec       q    Type
REMARK                         _______ _______ _______ _____ _____    ______ ____
ROOT
ATOM      1  C   UNL     1      19.444  26.135  -3.470  0.00  0.00    +0.000 C 
ATOM      2  C   UNL     1      19.747  27.143  -2.373  0.00  0.00    +0.000 C 
ATOM      3  C   UNL     1      20.404  26.483  -1.172  0.00  0.00    +0.000 C 
ENDROOT
TORSDOF 0
ENDMDL
MODEL 6
REMARK VINA RESULT:    -1.671      3.833      4.365
REMARK INTER + INTRA:          -1.671
REMARK INTER:                  -1.671
REMARK INTRA:                   0.000
REMARK UNBOUND:                 0.000
REMARK  Name = 
REMARK  2 active torsions:
REMARK  status: ('A' for Active; 'I' for Inactive)
REMARK    1  A    between atoms: C_1  and  C_2
REMARK    2  A    between atoms: C_2  and  C_3
REMARK                            x       y       z     vdW  Elec       q    Type
REMARK                         _______ _______ _______ _____ _____    ______ ____
ROOT
ATOM      1  C   UNL     1      20.105  26.422  -1.318  0.00  0.00    +0.000 C 
ATOM      2  C   UNL     1      19.699  27.305  -2.487  0.00  0.00    +0.000 C 
ATOM      3  C   UNL     1      19.551  28.758  -2.067  0.00  0.00    +0.000 C 
ENDROOT
TORSDOF 0
ENDMDL
MODEL 7
REMARK VINA RESULT:    -1.600      1.418      2.645
REMARK INTER + INTRA:          -1.600
REMARK INTER:                  -1.600
REMARK INTRA:                   0.000
REMARK UNBOUND:                 0.000
REMARK  Name = 
REMARK  2 active torsions:
REMARK  status: ('A' for Active; 'I' for Inactive)
REMARK    1  A    between atoms: C_1  and  C_2
REMARK    2  A    between atoms: C_2  and  C_3
REMARK                            x       y       z     vdW  Elec       q    Type
REMARK                         _______ _______ _______ _____ _____    ______ ____
ROOT
ATOM      1  C   UNL     1      21.828  30.066   0.139  0.00  0.00    +0.000 C 
ATOM      2  C   UNL     1      20.385  30.428   0.453  0.00  0.00    +0.000 C 
ATOM      3  C   UNL     1      19.417  29.731  -0.487  0.00  0.00    +0.000 C 
ENDROOT
TORSDOF 0
ENDMDL
MODEL 8
REMARK VINA RESULT:    -1.485      4.567      4.730
REMARK INTER + INTRA:          -1.485
REMARK INTER:                  -1.485
REMARK INTRA:                   0.000
REMARK UNBOUND:                 0.000
REMARK  Name = 
REMARK  2 active torsions:
REMARK  status: ('A' for Active; 'I' for Inactive)
REMARK    1  A    between atoms: C_1  and  C_2
REMARK    2  A    between atoms: C_2  and  C_3
REMARK                            x       y       z     vdW  Elec       q    Type
REMARK                         _______ _______ _______ _____ _____    ______ ____
ROOT
ATOM      1  C   UNL     1      19.650  30.838   2.267  0.00  0.00    +0.000 C 
ATOM      2  C   UNL     1      19.291  31.424   3.623  0.00  0.00    +0.000 C 
ATOM      3  C   UNL     1      18.922  32.894   3.516  0.00  0.00    +0.000 C 
ENDROOT
TORSDOF 0
ENDMDL
MODEL 9
REMARK VINA RESULT:    -1.467     14.083     14.580
REMARK INTER + INTRA:          -1.467
REMARK INTER:                  -1.467
REMARK INTRA:                   0.000
REMARK UNBOUND:                 0.000
REMARK  Name = 
REMARK  2 active torsions:
REMARK  status: ('A' for Active; 'I' for Inactive)
REMARK    1  A    between atoms: C_1  and  C_2
REMARK    2  A    between atoms: C_2  and  C_3
REMARK                            x       y       z     vdW  Elec       q    Type
REMARK                         _______ _______ _______ _____ _____    ______ ____
ROOT
ATOM      1  C   UNL     1      31.704  33.566   9.915  0.00  0.00    +0.000 C 
ATOM      2  C   UNL     1      32.912  33.486   8.995  0.00  0.00    +0.000 C 
ATOM      3  C   UNL     1      34.050  32.707   9.632  0.00  0.00    +0.000 C 
ENDROOT
TORSDOF 0
ENDMDL
