REMARK  Name = 
REMARK  2 active torsions:
REMARK  status: ('A' for Active; 'I' for Inactive)
REMARK    1  A    between atoms: C_1  and  C_2
REMARK    2  A    between atoms: C_2  and  C_3
REMARK                            x       y       z     vdW  Elec       q    Type
REMARK                         _______ _______ _______ _____ _____    ______ ____
ROOT
ATOM      1  C   UNL     1      -1.263  -0.148  -0.136  0.00  0.00    +0.000 C 
ATOM      2  C   UNL     1       0.048   0.616  -0.051  0.00  0.00    +0.000 C 
ATOM      3  C   UNL     1       1.226  -0.317   0.174  0.00  0.00    +0.000 C 
ENDROOT
TORSDOF 0
