MODEL 1
REMARK VINA RESULT:    -2.259      0.000      0.000
REMARK INTER + INTRA:          -2.259
REMARK INTER:                  -2.259
REMARK INTRA:                   0.000
REMARK UNBOUND:                 0.000
REMARK  Name = 
REMARK  2 active torsions:
REMARK  status: ('A' for Active; 'I' for Inactive)
REMARK    1  A    between atoms: C_1  and  C_2
REMARK    2  A    between atoms: C_2  and  C_3
REMARK                            x       y       z     vdW  Elec       q    Type
REMARK                         _______ _______ _______ _____ _____    ______ ____
ROOT
ATOM      1  C   UNL     1      21.217  29.550  -0.427  0.00  0.00    +0.000 C 
ATOM      2  C   UNL     1      22.592  29.706   0.201  0.00  0.00    +0.000 C 
ATOM      3  C   UNL     1      22.618  29.182   1.627  0.00  0.00    +0.000 C 
ENDROOT
TORSDOF 0
ENDMDL
MODEL 2
REMARK VINA RESULT:    -2.248      0.186      2.054
REMARK INTER + INTRA:          -2.248
REMARK INTER:                  -2.248
REMARK INTRA:                   0.000
REMARK UNBOUND:                 0.000
REMARK  Name = 
REMARK  2 active torsions:
REMARK  status: ('A' for Active; 'I' for Inactive)
REMARK    1  A    between atoms: C_1  and  C_2
REMARK    2  A    between atoms: C_2  and  C_3
REMARK                            x       y       z     vdW  Elec       q    Type
REMARK                         _______ _______ _______ _____ _____    ______ ____
ROOT
ATOM      1  C   UNL     1      22.664  29.163   1.636  0.00  0.00    +0.000 C 
ATOM      2  C   UNL     1      22.682  29.811   0.262  0.00  0.00    +0.000 C 
ATOM      3  C   UNL     1      21.302  29.813  -0.374  0.00  0.00    +0.000 C 
ENDROOT
TORSDOF 0
ENDMDL
MODEL 3
REMARK VINA RESULT:    -1.871      6.254      7.067
REMARK INTER + INTRA:          -1.871
REMARK INTER:                  -1.871
REMARK INTRA:                   0.000
REMARK UNBOUND:                 0.000
REMARK  Name = 
REMARK  2 active torsions:
REMARK  status: ('A' for Active; 'I' for Inactive)
REMARK    1  A    between atoms: C_1  and  C_2
REMARK    2  A    between atoms: C_2  and  C_3
REMARK                            x       y       z     vdW  Elec       q    Type
REMARK                         _______ _______ _______ _____ _____    ______ ____
ROOT
ATOM      1  C   UNL     1      20.582  30.763   7.780  0.00  0.00    +0.000 C 
ATOM      2  C   UNL     1      20.870  31.785   6.692  0.00  0.00    +0.000 C 
ATOM      3  C   UNL     1      19.768  31.813   5.645  0.00  0.00    +0.000 C 
ENDROOT
TORSDOF 0
ENDMDL
MODEL 4
REMARK VINA RESULT:    -1.720      4.050      4.788
REMARK INTER + INTRA:          -1.720
REMARK INTER:                  -1.720
REMARK INTRA:                   0.000
REMARK UNBOUND:                 0.000
REMARK  Name = 
REMARK  2 active torsions:
REMARK  status: ('A' for Active; 'I' for Inactive)
REMARK    1  A    between atoms: C_1  and  C_2
REMARK    2  A    between atoms: C_2  and  C_3
REMARK                            x       y       z     vdW  Elec       q    Type
REMARK                         _______ _______ _______ _____ _____    ______ ____
ROOT
ATOM      1  C   UNL     1      19.094  26.015  -3.380  0.00  0.00    +0.000 C 
ATOM      2  C   UNL     1      19.758  27.078  -2.521  0.00  0.00    +0.000 C 
ATOM      3  C   UNL     1      20.386  26.478  -1.274  0.00  0.00    +0.000 C 
ENDROOT
TORSDOF 0
ENDMDL
MODEL 5
REMARK VINA RESULT:    -1.684      5.598      6.161
REMARK INTER + INTRA:          -1.684
REMARK INTER:                  -1.684
REMARK INTRA:                   0.000
REMARK UNBOUND:                 0.000
REMARK  Name = 
REMARK  2 active torsions:
REMARK  status: ('A' for Active; 'I' for Inactive)
REMARK    1  A    between atoms: C_1  and  C_2
REMARK    2  A    between atoms: C_2  and  C_3
REMARK                            x       y       z     vdW  Elec       q    Type
REMARK                         _______ _______ _______ _____ _____    ______ ____
ROOT
ATOM      1  C   UNL     1      19.652  31.753   4.495  0.00  0.00    +0.000 C 
ATOM      2  C   UNL     1      19.514  31.723   6.008  0.00  0.00    +0.000 C 
ATOM      3  C   UNL     1      20.870  31.705   6.693  0.00  0.00    +0.000 C 
ENDROOT
TORSDOF 0
ENDMDL
MODEL 6
REMARK VINA RESULT:    -1.677      3.854      4.382
REMARK INTER + INTRA:          -1.677
REMARK INTER:                  -1.677
REMARK INTRA:                   0.000
REMARK UNBOUND:                 0.000
REMARK  Name = 
REMARK  2 active torsions:
REMARK  status: ('A' for Active; 'I' for Inactive)
REMARK    1  A    between atoms: C_1  and  C_2
REMARK    2  A    between atoms: C_2  and  C_3
REMARK                            x       y       z     vdW  Elec       q    Type
REMARK                         _______ _______ _______ _____ _____    ______ ____
ROOT
ATOM      1  C   UNL     1      20.379  26.419  -1.221  0.00  0.00    +0.000 C 
ATOM      2  C   UNL     1      19.764  27.099  -2.434  0.00  0.00    +0.000 C 
ATOM      3  C   UNL     1      19.456  28.561  -2.159  0.00  0.00    +0.000 C 
ENDROOT
TORSDOF 0
ENDMDL
MODEL 7
REMARK VINA RESULT:    -1.628      1.156      2.450
REMARK INTER + INTRA:          -1.628
REMARK INTER:                  -1.628
REMARK INTRA:                   0.000
REMARK UNBOUND:                 0.000
REMARK  Name = 
REMARK  2 active torsions:
REMARK  status: ('A' for Active; 'I' for Inactive)
REMARK    1  A    between atoms: C_1  and  C_2
REMARK    2  A    between atoms: C_2  and  C_3
REMARK                            x       y       z     vdW  Elec       q    Type
REMARK                         _______ _______ _______ _____ _____    ______ ____
ROOT
ATOM      1  C   UNL     1      22.034  30.015   0.095  0.00  0.00    +0.000 C 
ATOM      2  C   UNL     1      20.886  29.279  -0.577  0.00  0.00    +0.000 C 
ATOM      3  C   UNL     1      19.539  29.852  -0.170  0.00  0.00    +0.000 C 
ENDROOT
TORSDOF 0
ENDMDL
MODEL 8
REMARK VINA RESULT:    -1.549      7.657      8.375
REMARK INTER + INTRA:          -1.549
REMARK INTER:                  -1.549
REMARK INTRA:                   0.000
REMARK UNBOUND:                 0.000
REMARK  Name = 
REMARK  2 active torsions:
REMARK  status: ('A' for Active; 'I' for Inactive)
REMARK    1  A    between atoms: C_1  and  C_2
REMARK    2  A    between atoms: C_2  and  C_3
REMARK                            x       y       z     vdW  Elec       q    Type
REMARK                         _______ _______ _______ _____ _____    ______ ____
ROOT
ATOM      1  C   UNL     1      20.484  32.243   6.814  0.00  0.00    +0.000 C 
ATOM      2  C   UNL     1      19.157  32.622   7.451  0.00  0.00    +0.000 C 
ATOM      3  C   UNL     1      19.257  32.668   8.967  0.00  0.00    +0.000 C 
ENDROOT
TORSDOF 0
ENDMDL
MODEL 9
REMARK VINA RESULT:    -1.527      5.925      6.224
REMARK INTER + INTRA:          -1.527
REMARK INTER:                  -1.527
REMARK INTRA:                   0.000
REMARK UNBOUND:                 0.000
REMARK  Name = 
REMARK  2 active torsions:
REMARK  status: ('A' for Active; 'I' for Inactive)
REMARK    1  A    between atoms: C_1  and  C_2
REMARK    2  A    between atoms: C_2  and  C_3
REMARK                            x       y       z     vdW  Elec       q    Type
REMARK                         _______ _______ _______ _____ _____    ______ ____
ROOT
ATOM      1  C   UNL     1      19.447  31.917   4.527  0.00  0.00    +0.000 C 
ATOM      2  C   UNL     1      18.929  32.926   3.515  0.00  0.00    +0.000 C 
ATOM      3  C   UNL     1      18.635  34.268   4.164  0.00  0.00    +0.000 C 
ENDROOT
TORSDOF 0
ENDMDL
